1970
Lattice="25.791885376 0.0 0.0 8.2531563868 24.4357680644 0.0 0.0 0.0 35.1925086975" Properties=species:S:1:pos:R:3:momenta:R:3:forces:R:3 energy=-12504.533203125 free_energy=-12504.533203125 stress="-0.02194702997803688 0.00024073578242678195 -0.0031734209042042494 0.00024073578242678195 -0.020420849323272705 0.0036787153221666813 -0.0031734209042042494 0.0036787153221666813 -0.03587216138839722" pbc="T T T"
Fe      22.85504176      18.76376806      28.94250870       0.00000000       0.00000000       0.00000000       0.01175852       0.10897662       0.35102674
Fe      29.09204176      18.83376806      28.85750870       0.00000000       0.00000000       0.00000000       0.16197489      -0.04870650       0.45641279
Fe       9.53215639      19.92976806      29.50750870       0.00000000       0.00000000       0.00000000       0.10327308      -0.01990998       0.16355190
Fe      16.65515639      19.72676806      28.90850870       0.00000000       0.00000000       0.00000000       0.25005946       0.42489347      -0.12704642
Fe      17.91288538       0.69200000      28.78850870       0.00000000       0.00000000       0.00000000       0.06503013      -0.00929312      -0.17270188
Fe      10.26500000       0.22800000      29.03850870       0.00000000       0.00000000       0.00000000       0.08805546      -0.09851380       0.02420439
Fe      19.53488538       7.24100000      28.72350870       0.00000000       0.00000000       0.00000000       0.07240850       0.02047449       0.06907159
Fe      25.57688538       6.08700000      28.81650870       0.00000000       0.00000000       0.00000000       0.17925975      -0.08384183       0.02427213
Fe       5.92900000       6.44800000      28.97450870       0.00000000       0.00000000       0.00000000       0.25747389       0.18078160       0.05294277
Fe      12.40400000       6.59800000      28.89550870       0.00000000       0.00000000       0.00000000       0.04998694       0.20217508       0.30494013
Fe      20.57188538      12.45500000      28.90450870       0.00000000       0.00000000       0.00000000       0.02287560      -0.05186372       0.17235087
Fe      27.18388538      12.50100000      28.90150870       0.00000000       0.00000000       0.00000000       0.04976852      -0.04085346       0.13470177
Fe       7.80400000      12.78600000      28.93750870       0.00000000       0.00000000       0.00000000       0.14047234      -0.14783089       0.22910255
Fe      14.21200000      13.04100000      29.01850870       0.00000000       0.00000000       0.00000000       0.00108761      -0.03053261       0.01120773
Fe      18.93004176      15.69576806      32.41950870       0.00000000       0.00000000       0.00000000       0.00236356      -0.00965433      -0.00876849
Fe      25.30404176      15.55476806      32.40750870       0.00000000       0.00000000       0.00000000      -0.01618924      -0.00243586       0.01407251
Fe       5.87815639      15.56876806      32.42550870       0.00000000       0.00000000       0.00000000      -0.00177076       0.00032680       0.00633365
Fe      12.49415639      15.72976806      32.48950870       0.00000000       0.00000000       0.00000000      -0.01136394      -0.01977186       0.01280545
Fe      21.10004176      21.80076806      32.39350870       0.00000000       0.00000000       0.00000000      -0.02550879      -0.01767976      -0.00121190
Fe      27.43004176      21.71476806      32.37650870       0.00000000       0.00000000       0.00000000      -0.01663233      -0.00812585      -0.00291258
Fe       8.06515639      21.59976806      32.50850870       0.00000000       0.00000000       0.00000000      -0.01267076       0.00660414       0.00787350
Fe      14.63515639      21.84576806      32.60850870       0.00000000       0.00000000       0.00000000       0.00053199      -0.00890914       0.00943863
Fe      14.90988538       3.50300000      32.41150870       0.00000000       0.00000000       0.00000000      -0.01427452      -0.00552833       0.00734527
Fe      21.37388538       3.28600000      32.29550870       0.00000000       0.00000000       0.00000000      -0.02680558       0.00198581       0.00977537
Fe       1.95600000       3.26400000      32.42550870       0.00000000       0.00000000       0.00000000      -0.02280040      -0.00471339       0.00494107
Fe       8.50700000       3.49300000      32.41750870       0.00000000       0.00000000       0.00000000      -0.01438622      -0.01646537       0.02298629
Fe      16.89688538       9.62700000      32.44650870       0.00000000       0.00000000       0.00000000      -0.01336790      -0.00599003       0.00998547
Fe      23.31488538       9.40000000      32.38750870       0.00000000       0.00000000       0.00000000      -0.01259428      -0.00848581      -0.00396816
Fe       3.96700000       9.43600000      32.38450870       0.00000000       0.00000000       0.00000000      -0.01830735      -0.01801943       0.00108541
Fe      10.43400000       9.61700000      32.41150870       0.00000000       0.00000000       0.00000000      -0.00917169       0.00050510      -0.01487663
Fe      21.11204176      12.56476806       0.97200000       0.00000000       0.00000000       0.00000000       0.12240554       0.10646939       0.14214349
Fe      27.49804176      12.40976806       0.95300000       0.00000000       0.00000000       0.00000000      -0.06258895       0.01456904      -0.13432902
Fe       8.16715639      12.49576806       0.91400000       0.00000000       0.00000000       0.00000000       0.07664183      -0.08280627       0.02872204
Fe      14.69015639      12.60576806       0.95200000       0.00000000       0.00000000       0.00000000      -0.16952980      -0.19337946      -0.33007762
Fe      23.19004176      18.63376806       0.96000000       0.00000000       0.00000000       0.00000000       0.14315490       0.12149952       0.26370245
Fe      29.52304176      18.53376806       0.89000000       0.00000000       0.00000000       0.00000000       0.13242164       0.03480298       0.29569486
Fe      10.17115639      18.58376806       0.91900000       0.00000000       0.00000000       0.00000000      -0.04637220      -0.00437915      -0.11974976
Fe      16.73715639      18.72276806       0.96700000       0.00000000       0.00000000       0.00000000      -0.05485612       0.00518226      -0.11237463
Fe      17.05088538       0.31600000       0.98600000       0.00000000       0.00000000       0.00000000      -0.16724955      -0.17001969      -0.31493121
Fe      23.51288538       0.22800000       0.92900000       0.00000000       0.00000000       0.00000000       0.12077725       0.12568355       0.26365313
Fe       4.18900000       0.25400000       0.94000000       0.00000000       0.00000000       0.00000000       0.20938450       0.15129702       0.38109028
Fe      10.73700000       0.42600000       0.93000000       0.00000000       0.00000000       0.00000000      -0.07697016      -0.05917488      -0.12598294
Fe      19.08988538       6.42800000       0.98400000       0.00000000       0.00000000       0.00000000      -0.33128560      -0.24234077      -0.49693751
Fe      25.55388538       6.31200000       0.90100000       0.00000000       0.00000000       0.00000000       0.19092846       0.03224938       0.31228632
Fe       6.22700000       6.39900000       0.95700000       0.00000000       0.00000000       0.00000000       0.09416601       0.10235771       0.19959022
Fe      12.69000000       6.51700000       0.95300000       0.00000000       0.00000000       0.00000000       0.25730616       0.17417793       0.50764853
Fe      18.87717177      15.85694870       4.57319107      -0.22918658       0.27369315      -0.60794678      -0.43467110      -0.05840166      -0.71954674
Fe      25.04777020      15.33181582       4.54377950      -0.89250154       0.65036544      -0.99211383       1.13073993      -0.16716257      -0.55023563
Fe       5.61561984      15.31606013       4.54330907      -1.01786287      -1.74660348      -0.81117815       0.52298176       0.51688367      -0.60158390
Fe      12.23798428      15.89694126       4.56862404      -0.02669374      -0.25438663      -2.04092890      -1.06348348      -0.10565680      -0.00198064
Fe      20.83432134      21.63751981       4.27454722       1.97396021      -0.92011452       1.08602480      -0.31995219      -0.33197245       0.91253555
Fe      27.35686790      21.64396977       4.41627998      -0.64362711      -0.64544992      -0.73344226       0.05763523       0.04378414       0.38131815
Fe      14.64138800       3.30040532       4.76922937       0.91509789      -0.43777243      -1.36933104       1.02567887      -0.62714911      -0.52448118
Fe      21.35206499       3.46654738       4.74608913       0.39105051       0.98833922       0.59699000      -0.87526464      -0.31749690      -0.15730350
Fe       1.91338982       3.03277217       4.71557915       2.40905842      -0.61309916      -0.33616246      -0.08962509      -0.53159767      -0.68799043
Fe       8.22595897       3.23117645       4.49341283      -1.13714049      -0.53616168       1.93268782       0.30501842       0.19751461       0.51517743
Fe      16.75192077       9.40956956       4.60633909       0.12593669       0.88474639      -1.87657211       0.04829048       0.33795527       0.02041841
Fe      23.13221273       9.37015508       4.34458553       0.08284577       1.02731851      -0.89281624       0.16122724      -0.45075881       0.35492969
Fe       3.69049811       9.29008862       4.63003677      -0.49634922      -0.25921951       0.85671330       0.44285789      -0.70515674      -0.89191413
Fe      10.35150319       9.50147008       4.53352613       2.01800050       0.04636678       0.59027093       0.05465994      -0.34162399      -0.24218382
Fe      21.90704176      15.34976806      30.60950870       0.00000000       0.00000000       0.00000000      -0.01472460      -0.00054437       0.02971073
Fe      28.32104176      15.32276806      30.62650870       0.00000000       0.00000000       0.00000000      -0.02210444      -0.01775853       0.03629046
Fe       8.90515639      15.65176806      30.65350870       0.00000000       0.00000000       0.00000000       0.01803134      -0.01013680       0.00623462
Fe      15.58915639      15.82576806      30.54050870       0.00000000       0.00000000       0.00000000      -0.02539087      -0.06008667       0.02929036
Fe      24.10504176      21.59476806      30.62750870       0.00000000       0.00000000       0.00000000       0.02988464       0.01609144      -0.02332159
Fe      17.56515639      21.60376806      30.85650870       0.00000000       0.00000000       0.00000000       0.07536187       0.02797058       0.02179065
Fe      18.19288538       3.55700000      30.52750870       0.00000000       0.00000000       0.00000000      -0.02239023      -0.03192359       0.03439154
Fe      24.56588538       2.92300000      30.51650870       0.00000000       0.00000000       0.00000000      -0.00908113      -0.02521531       0.01729667
Fe       5.14100000       3.22400000      30.67050870       0.00000000       0.00000000       0.00000000      -0.00420425      -0.05173229       0.02196795
Fe      11.58100000       3.24000000      30.57850870       0.00000000       0.00000000       0.00000000      -0.03341049      -0.03088534       0.05505618
Fe      19.93588538       9.29700000      30.78250870       0.00000000       0.00000000       0.00000000      -0.00428231      -0.00210840       0.01578591
Fe      26.37388538       9.20900000      30.60350870       0.00000000       0.00000000       0.00000000      -0.00397648      -0.00984590       0.03415392
Fe       7.03200000       9.29700000      30.63950870       0.00000000       0.00000000       0.00000000       0.00200192      -0.00405268       0.03332859
Fe      13.48800000       9.49400000      30.62150870       0.00000000       0.00000000       0.00000000       0.01299327      -0.00373591       0.00652769
Fe      17.90504276      12.59176806      34.27050870       0.00000000       0.00000000       0.00000000      -0.00180387      -0.00247738      -0.00116252
Fe      24.30904176      12.46976806      34.22950870       0.00000000       0.00000000       0.00000000       0.00478583      -0.00294403      -0.00112537
Fe       4.91115639      12.43376806      34.22750870       0.00000000       0.00000000       0.00000000      -0.01565202      -0.00574817      -0.00915310
Fe      11.44615639      12.58276806      34.24950870       0.00000000       0.00000000       0.00000000      -0.00510905      -0.01826693       0.02385291
Fe      19.98404176      18.68676806      34.24150870       0.00000000       0.00000000       0.00000000      -0.03042363      -0.01505502      -0.01589510
Fe      26.32204176      18.55176806      34.25050870       0.00000000       0.00000000       0.00000000      -0.01341125      -0.00596459      -0.01439174
Fe       6.92515639      18.53876806      34.24150870       0.00000000       0.00000000       0.00000000       0.01150796      -0.02054888       0.01833007
Fe      13.48515639      18.69476806      34.32150870       0.00000000       0.00000000       0.00000000      -0.00678254      -0.00445126       0.01559033
Fe      13.87788538       0.37600000      34.23650870       0.00000000       0.00000000       0.00000000      -0.00802013       0.00530606       0.00317030
Fe      20.28088538       0.25700000      34.18350870       0.00000000       0.00000000       0.00000000      -0.01732746       0.00580029      -0.00564670
Fe       0.94300000       0.22000000      34.29850870       0.00000000       0.00000000       0.00000000       0.01518505       0.03640166       0.00912467
Fe       7.48600000       0.36400000      34.27950870       0.00000000       0.00000000       0.00000000       0.00734157       0.00499656       0.01016522
Fe      15.89088538       6.47600000      34.29150870       0.00000000       0.00000000       0.00000000       0.00315435      -0.01014915       0.04121822
Fe      22.31988538       6.34800000      34.20550870       0.00000000       0.00000000       0.00000000      -0.02717917      -0.02660872      -0.01153857
Fe       2.99100000       6.33100000      34.21650870       0.00000000       0.00000000       0.00000000      -0.01475357      -0.01011951      -0.02305255
Fe       9.45700000       6.50200000      34.24450870       0.00000000       0.00000000       0.00000000      -0.02923244      -0.00406009       0.00965127
Fe      22.11889027      15.67996338       2.87550577       0.23446406       0.06361420       2.66807370       0.21917245       0.06688000      -0.48557609
Fe      28.48677664      15.58742241       2.81840583       0.33505699      -0.21768782      -1.65833498       0.28015587       0.37488705      -0.35959435
Fe       9.24081199      15.61914130       2.75360962       0.68205686      -2.08781658      -0.69166466      -0.59411228      -0.27681452       0.33489689
Fe      15.81997026      15.78286376       2.72721388      -0.07229743      -0.94760319       0.02494180      -0.45594561      -0.52287906       0.46858534
Fe      24.29188078      21.87895871       2.86591613      -2.41950543      -0.09831630      -2.18994132       0.73685908      -0.31585377      -0.09601200
Fe      30.70417194      21.68200616       2.73132809       1.62909789       0.30821560       0.27401204       0.06223036      -0.00754269       0.57535863
Fe      11.26807067      21.60278511       2.65048820      -1.27241151      -0.35441887      -0.92160444       0.58100921       0.59378278       0.30525461
Fe      17.80098236      21.85339746       2.63870090       0.58716167      -0.44655057       0.45145611       0.23899543      -0.13242924      -0.00805097
Fe      18.18030780       3.39990284       2.88621985      -1.50404698      -0.31406651       0.82635224      -0.40998578      -0.08892711      -0.12643309
Fe      24.48163543       3.36609571       2.92856664      -0.79223851      -1.59122314      -1.42091482       0.12594460      -0.56529498      -0.91295320
Fe       5.12147959       3.35527768       2.69818156       0.47435862       0.60233732      -1.46464609       0.07591718       0.20756412       0.69994795
Fe      11.71794940       3.48703713       2.79638550      -0.16531300       1.12049188       1.23767071      -0.37404460       0.35400027      -0.63035536
Fe      20.12117195       9.60612841       2.78630195      -2.39355272       0.74447361       0.70652517      -0.09290436      -0.47944683      -0.06137313
Fe      26.54395063       9.32438960       2.72530417      -0.21969729      -2.56129108       1.83252449       1.03033566      -0.07008122       0.37253773
Fe       6.99741531       9.56620017       2.81204806       1.15217980       1.06950861       0.62371290       0.33762440      -0.15201294      -0.19112749
Fe      13.73225979       9.64276599       2.93143562      -0.26847182      -1.87649808       0.70525244      -0.18474337       0.03521656      -0.80182266
Fe      26.06558310      18.76403628       6.22625351      -0.04842559       1.24621234      -2.15097575      -0.01793942      -0.78893793      -0.19695574
Fe       6.41070519      18.90200592       6.13838961       2.25374548       1.04992893      -2.35160918       0.20024860       0.56591904      -0.10389543
Fe      12.72059293      20.01093981       5.66345664       1.17658007       1.50259207      -1.13135226      -0.07730854       0.04842216       0.32775196
Fe      19.99645139      19.71112536       6.44424407      -1.10338274      -0.46905731       1.45996194       0.44273293      -0.32356799       1.09754956
Fe      21.20627476       0.59408119       6.61064370       0.82176076      -0.86049974       0.81886816       0.64074260       0.38460326      -1.09173155
Fe      13.67210406       0.09204795       6.18781284       1.33468335       0.03566882       0.53026906      -0.54684711       0.35322621       0.26903692
Fe      22.70662807       7.17545075       6.42044215       0.60281635       0.17946535       0.66795421      -0.79487753       0.44954583       0.30882955
Fe       3.00182568       6.12980454       6.29647564      -1.66553830       1.73988114      -0.60047788      -0.40461311      -0.24309942       0.66925597
Fe       9.22358548       6.59501268       6.33196333       1.32347190       0.80550698       0.60699107      -0.02775003       0.12738395      -0.24446377
Fe      15.63619776       6.73639328       6.83210650      -0.96334856      -0.41980941      -0.47243720       0.97591335      -1.44637632       0.09523936
Fe      23.71829930      12.53654033       6.08320262      -1.37464459      -0.56238137      -2.21742651       0.52339095      -0.75506580      -0.26640511
Fe       4.61275891      12.44301551       6.17767970      -0.78072629      -0.82122146      -0.32683682       0.22712874       0.10154717      -0.18896468
Fe      11.27876392      12.76459378       6.32593089       0.21000353      -0.43346491       0.27373085      -0.10443281       0.45766658      -0.21490647
Fe      17.48404565      12.93416061       6.17145895      -0.89378162       0.68036026       2.26701434       0.51418543       0.14102726      -1.30963206
Cu      18.04504176      12.79476806      30.41150870       0.00000000       0.00000000       0.00000000      -0.00982014      -0.01282328       0.02339561
Cu      24.43204176      12.60976806      30.37150870       0.00000000       0.00000000       0.00000000      -0.02175568       0.00169185       0.00343005
Cu       5.16615639      12.62576806      30.38050870       0.00000000       0.00000000       0.00000000      -0.02830232      -0.02119257       0.03154767
Cu      11.48015639      12.86076806      30.45950870       0.00000000       0.00000000       0.00000000      -0.00609674      -0.00021302      -0.00656790
Cu      20.18304176      18.89176806      30.41650870       0.00000000       0.00000000       0.00000000      -0.00023323      -0.04194757       0.00101705
Cu      26.52304176      18.73976806      30.38050870       0.00000000       0.00000000       0.00000000      -0.02246796      -0.01415345       0.02962035
Cu       6.68715639      18.87976806      30.46950870       0.00000000       0.00000000       0.00000000      -0.01678942       0.00107145       0.01784110
Cu      13.45615639      19.01276806      30.67350870       0.00000000       0.00000000       0.00000000      -0.01019441       0.00792971      -0.01136957
Cu      14.15888538       0.50100000      30.31150870       0.00000000       0.00000000       0.00000000       0.00441855       0.01722409      -0.01261711
Cu      20.12188538       0.29100000      30.53350870       0.00000000       0.00000000       0.00000000       0.02887573       0.01615505       0.03254540
Cu       9.37015639      24.39976806      30.60450870       0.00000000       0.00000000       0.00000000       0.02390278       0.00702067       0.00635349
Cu       7.67900000       0.53800000      30.50150870       0.00000000       0.00000000       0.00000000      -0.00933570      -0.01096536       0.01176180
Cu      15.97188538       6.63500000      30.53250870       0.00000000       0.00000000       0.00000000      -0.00945957      -0.00282050       0.00113708
Cu      22.35488538       6.14600000      30.56650870       0.00000000       0.00000000       0.00000000      -0.04323316      -0.00251157       0.02791239
Cu       3.14300000       6.45500000      30.38250870       0.00000000       0.00000000       0.00000000       0.02757005      -0.00182335      -0.00345318
Cu       9.70800000       6.58500000      30.40850870       0.00000000       0.00000000       0.00000000      -0.04282232      -0.02106163       0.00093256
Cu      22.10204176      15.55676806      34.25650870       0.00000000       0.00000000       0.00000000       0.00505790       0.00990174       0.00567236
Cu      28.43204176      15.42476806      34.27650870       0.00000000       0.00000000       0.00000000       0.00327296       0.00569431       0.00118286
Cu       9.17315639      15.51876806      34.23550870       0.00000000       0.00000000       0.00000000      -0.02167339      -0.00590133      -0.00863492
Cu      15.66715639      15.61376806      34.28750870       0.00000000       0.00000000       0.00000000      -0.02131826      -0.01189391      -0.00930176
Cu      24.22504176      21.65476806      34.25950870       0.00000000       0.00000000       0.00000000       0.00378860       0.00348012       0.01747287
Cu      30.62004176      21.58776806      34.20250870       0.00000000       0.00000000       0.00000000      -0.01168662      -0.00481952      -0.00451811
Cu      11.37315639      21.63076806      34.21250870       0.00000000       0.00000000       0.00000000       0.00872064      -0.00010133       0.00598118
Cu      17.83015639      21.76576806      34.26450870       0.00000000       0.00000000       0.00000000       0.01224225      -0.00230298      -0.00422607
Cu      18.11688538       3.36500000      34.29350870       0.00000000       0.00000000       0.00000000      -0.00564392      -0.00338062       0.00468781
Cu      24.53388538       3.28600000      34.25450870       0.00000000       0.00000000       0.00000000       0.00616152       0.00982265       0.01819338
Cu       5.18700000       3.38000000      34.29550870       0.00000000       0.00000000       0.00000000      -0.00351806       0.00969900      -0.00553636
Cu      11.68100000       3.45700000      34.25350870       0.00000000       0.00000000       0.00000000       0.00025792       0.00155671       0.00491464
Cu      20.08288538       9.48800000      34.31350870       0.00000000       0.00000000       0.00000000      -0.00323090      -0.00827522      -0.00589251
Cu      26.51588538       9.34800000      34.23350870       0.00000000       0.00000000       0.00000000       0.00078832       0.00696136       0.00286121
Cu       7.16300000       9.44100000      34.24850870       0.00000000       0.00000000       0.00000000       0.01134556       0.00717176       0.01226180
Cu      13.66600000       9.55300000      34.24650870       0.00000000       0.00000000       0.00000000       0.00113211       0.01168839       0.01260851
Cu      17.88010654      12.56788126       2.86186892      -0.98625280      -1.35237080       2.01534624       0.19359832       0.04498950       0.05085607
Cu      24.31954173      12.34021043       2.81266622      -0.79185456       0.92760042       1.05895953       0.27801386       0.19876400       0.15998697
Cu       4.90968161      12.51639767       2.70687521      -0.38063707       1.01213834      -0.91863946       0.06111223      -0.42711389       0.14278698
Cu      11.52312211      12.60147642       2.90417686       1.53699754      -0.96388507      -1.39446728      -0.12898378       0.03517186       0.00394838
Cu      20.05671670      18.58355626       2.72108466      -0.96091876       0.76774195       2.28895838       0.44438905       0.35602593       0.15811551
Cu      26.33287372      18.60071945       2.71347024       1.19336835      -0.81271883       1.66000362       0.10953997       0.18965280       0.36043411
Cu       6.82411158      18.42869549       2.55380149      -0.08517055       1.51401180       2.21946944       0.08909021       0.21834445       0.34188640
Cu      13.44283051      18.64881722       2.89240273       1.64368755       0.19788037       0.15801933      -0.02516566      -0.00716477      -0.05927697
Cu      13.95841517       0.36332393       2.82199192       0.85052631       1.10007237       0.44062009      -0.15789574      -0.03598871      -0.07344815
Cu      20.10140869       0.21492927       2.51378094      -2.95353939      -1.96905693      -0.26915673       0.30850065       0.59062696       0.17174228
Cu       0.84680208       0.30514119       2.77674212      -0.69029462      -0.59681134       0.50735648       0.40555820      -0.46043497      -0.51366341
Cu       7.38884184       0.33710804       2.65038756      -0.60995500      -0.96278896       0.33200143       0.74708962      -0.45944816      -0.32947877
Cu      15.85485606       6.39204376       2.89256728      -0.97897215       1.10564506       0.91597888       0.32834461       0.26343164      -0.08692010
Cu      22.31057778       6.47547947       2.60605353       0.28204745      -0.38277155       2.42235549      -0.56452745      -0.40611261      -0.07069450
Cu       2.99738935       6.21265902       2.66863661      -1.11864321       1.11050565       0.46926036       0.10725487       0.09863949       0.32138625
Cu       9.52464343       6.39647570       2.79302125      -0.91464413       0.30186049       0.27318297      -0.03128119       0.29864576       0.20210546
Cu      21.56847612      15.77868240       5.71706884      -2.03913781       2.48630493      -0.79441253      -0.30938944       0.12533139      -0.05069268
Cu      27.74559848      15.34952361       5.28869412      -2.41131054       0.18411582       0.87491368      -0.27915680       0.08493035       0.31144011
Cu       8.39393491      15.40266049       5.60569849       0.77748587       0.28042171       1.04383541       0.52472335      -0.40522283      -0.22853734
Cu      14.61582445      16.24076882       5.31310470      -1.23152886      -1.23538504       0.16960759       0.34532505      -0.26357424       0.15606025
Cu      23.51952652      21.64338973       5.67635930       0.79308959       0.99309576      -1.82030158       1.06587219       0.17079802      -0.52394390
Cu      30.30130007      21.39382210       5.50205948       1.17782852      -1.47731033      -0.87706968       0.15502635       0.18886475      -0.08733073
Cu       9.85254231      22.81276403       4.83697654      -0.28862022       1.79122646       1.39463089       0.55909491       0.07061251      -0.05518439
Cu      16.37678190      22.47605879       5.10836957      -0.87340065      -0.00432535      -1.24715586       0.36420268      -1.09068549      -0.18843742
Cu      17.71929855       3.15588848       5.85869998      -1.57539832      -0.46276768      -0.06382892      -0.12848289      -0.48714498       0.36229768
Cu      24.10091063       2.78991699       6.05911445      -1.44882342       0.53388342       1.46937669       0.87481159      -0.52746993      -0.54564357
Cu       5.27858041       2.27840632       5.65683005       1.33371760       0.77757251       0.79393378      -0.45790726       1.05340087      -0.05104967
Cu      10.88095605       3.33432467       5.52966696      -0.09656688       1.00615601       0.57791726       0.55221319       1.62439561      -1.19899547
Cu      19.46009965       9.51593429       5.63892479      -1.56155060      -0.35397698       1.16531175       0.15413478       0.04031644      -0.22910900
Cu      26.18255180       9.18002178       5.85564413       0.54053733      -1.51419773      -0.16085181      -0.17135900       0.45972511      -0.30215201
Cu       6.27672768       9.36141676       5.55225770      -0.18753378       1.08518952       1.00305060       0.33867654      -0.20452204       0.00924565
Cu      13.09042843       9.49776594       5.73824015       0.80295309      -3.01275628       0.86540198       0.10984638      -0.25994396      -0.19367296
Cu      21.10104176      12.48876806      32.43050870       0.00000000       0.00000000       0.00000000      -0.00065337       0.00817473      -0.01026980
Cu      27.49604176      12.36776806      32.39150870       0.00000000       0.00000000       0.00000000       0.00324793       0.00173006       0.00112433
Cu       8.14915639      12.48076806      32.40850870       0.00000000       0.00000000       0.00000000       0.00333895       0.00649550      -0.00914406
Cu      14.69015639      12.61876806      32.35850870       0.00000000       0.00000000       0.00000000       0.00984922      -0.00276269       0.01051867
Cu      23.16704176      18.53076806      32.42950870       0.00000000       0.00000000       0.00000000       0.00184061       0.00375376      -0.02116556